
# Re-equilibrium

thermo 	500
thermo_style custom step c_myCTtemp c_myWPtemp press etotal fmax fnorm

run 40000 # 20 ps
No /omp style for force computation currently active
WARNING: One or more atoms are time integrated more than once (../modify_cuda.cpp:225)
Memory usage per processor = 46.2461 Mbytes
Step myCTtemp myWPtemp Press TotEng Fmax Fnorm 
       0    312.45926    373.51935   -2742.4313   -1020547.6     7.741091    759.62312 
WARNING: # CUDA: You asked for a Verlet integration using Cuda, but several fixes have not yet been ported to Cuda.
This can cause a severe speed penalty due to frequent data synchronization between host and GPU. (../verlet_cuda.cpp:632)
     500     328.6487    375.66561   -492.36398   -1020553.9    8.9882269    762.22676 
    1000    334.94683    375.72169    1127.6985     -1020577    8.8472842     762.0888 
    1500    326.24863    378.33256     2248.038   -1020582.2    7.6948846    761.85715 
    2000    320.33546    374.55965    4155.3333   -1020598.8    10.570357    764.13402 
    2500    317.34164    376.72951    2107.2304   -1020609.3    8.5119316    761.77634 
    3000    315.69999    377.70456    1977.6175   -1020612.6    8.9772263    761.85265 
    3500    314.37545      375.517   -268.37915   -1020620.9    9.6590056    759.27464 
    4000    316.86029    374.24363   -1685.8677   -1020620.9    10.200376    757.30593 
    4500    316.41601    373.65025   -1162.8878     -1020613    8.9160167    759.98517 
    5000    318.09631      374.106   -762.69545   -1020605.9     9.895782    759.75647 
    5500    311.43837    376.35504    1456.5675   -1020627.4    8.1680898    761.69118 
    6000    311.89376    376.45298    2394.4889   -1020624.9     8.785107    762.21238 
    6500    311.78347    374.48869    3767.7199   -1020629.1     8.669003     764.7519 
    7000    313.38002    376.44459    2896.4782   -1020626.3    7.6948846    762.81362 
    7500    312.72924    377.92512    574.04729   -1020623.6    7.6948846    759.99826 
    8000    313.09936    376.36606   -766.39362   -1020625.1    8.8161029    758.62856 
    8500    315.24365     375.9748   -2354.7609   -1020627.3    8.7681696    756.79087 
    9000    312.64159    375.87402   -1082.8365   -1020626.8    8.6139068    759.20333 
    9500    311.30996    376.28593   -38.335437   -1020641.8    8.2393533    759.86357 
   10000    313.20822    375.80264    1552.6874   -1020625.5    9.6817708    761.66169 
   10500    310.85896    375.95298    3167.1103   -1020631.5    7.8985199    763.66915 
   11000    311.07675    376.66917    2782.8986   -1020633.2    7.8376864    762.81772 
   11500    313.11968    375.52162    2287.9389   -1020617.3    8.6024064    763.57654 
   12000     312.9154      376.534    796.45419   -1020634.7     9.175328    761.37542 
   12500    312.40887    375.00451   -675.42851   -1020622.3    7.6948846    760.91642 
   13000    310.82175    373.89523   -2069.9187   -1020629.7    10.144956    757.50042 
   13500    312.90766    375.97544   -1427.2531   -1020644.9    8.1572796    758.54221 
   14000    309.30298    377.70377   -519.57688   -1020651.5    8.6386871    756.57949 
   14500    307.35195    377.52916    2066.6555   -1020637.1    8.2502877    762.46882 
   15000    306.26925     374.5746    3246.0248   -1020641.6    7.6948846    762.92791 
   15500    307.28706    377.36084    3585.4543   -1020654.2    8.0218502    762.49469 
   16000    307.06578    376.34695    1602.3212   -1020647.4     8.498237    760.22402 
   16500     313.5074    378.95668    823.74933   -1020642.8    7.6948846    758.98412 
   17000    308.47504    375.81988   -1385.9972   -1020642.7     8.405922    757.01688 
   17500    312.15615    373.91832   -2367.4084   -1020628.9    7.6948846    758.69584 
   18000    313.38444    375.27369   -1111.3517   -1020600.4    7.8954486    760.92878 
   18500    305.11411    376.95735   -896.41452   -1020617.7    9.7808046    759.75619 
   19000     309.8269    378.81841    2708.7998   -1020629.7    7.6948846    761.83472 
   19500    305.79457    378.38679    3320.1023   -1020631.3    8.1968134     764.1902 
   20000    309.39531    375.28229    3111.1273     -1020637    9.0727967    764.24832 
   20500    307.04425     376.7997     2577.993   -1020635.1     8.030109    763.13428 
   21000     308.2838    376.90568   -121.88771   -1020627.2    8.4577902    759.48892 
   21500    306.31154    376.32904   -1369.8664   -1020643.3    8.2036265    758.87247 
   22000    305.23324    373.94587   -2784.1621   -1020619.5    7.7969164     757.0059 
   22500    303.76653    375.42156   -928.69992   -1020608.1    8.2433608    759.98491 
   23000    311.82114     375.8567   -263.07534   -1020614.4    7.6948846    761.35837 
   23500    310.89164    376.22624    1967.9298   -1020618.4    8.3770181    762.72108 
   24000    308.63756    378.10462     4078.461   -1020641.3    9.7993294    763.67642 
   24500    307.52838    377.81639    2995.7285   -1020635.4    7.6948846     763.6652 
   25000    309.98063    377.03266    2040.3766   -1020642.4    7.7898864    762.20165 
   25500    306.98552     374.9387   -457.51397   -1020647.5    7.6948846    758.08617 
   26000    306.85015     376.5199   -1459.2978   -1020631.2    8.7546203     757.0179 
   26500    306.50366     375.4013   -2204.6358   -1020636.5    9.0027776    757.92622 
   27000    306.00731    377.55629   -655.95472   -1020636.3     10.40154    758.26661 
   27500    305.18763    375.69295    224.65175   -1020641.6    8.3483214    760.17253 
   28000    306.53493    376.05817    2241.5739   -1020639.6    8.8912147    763.90307 
   28500    306.97226    377.70207    4212.0263   -1020642.9    8.0323311    764.92529 
   29000    309.28647    376.12267    2734.9529   -1020653.4    9.5934486    763.32346 
   29500    305.24563    375.51588    988.87163   -1020649.3    9.1643921    761.52906 
   30000    300.55659    377.49826    -587.0097   -1020648.8     7.810126    758.39669 
   30500    303.66019    375.28686   -1497.3022   -1020641.5    7.6948846    757.62308 
   31000    303.00644     374.3194   -1777.3886   -1020642.8    9.3820494    757.31951 
   31500    308.78487    377.86819   -153.74364   -1020655.8    11.083335    758.27019 
   32000    308.99644    377.61121    806.01033   -1020651.7    8.3550041    759.74601 
   32500    304.72252    374.46182    2448.8358   -1020654.3     9.076156    762.08796 
   33000    302.83988    375.42671    2957.8027   -1020650.5    9.5081811    762.85481 
   33500    302.91958    375.69052    2344.1246   -1020654.3    7.8861546    761.80042 
   34000    301.25694    376.74647    975.09355   -1020653.7    7.7798346    760.41903 
   34500    304.16194    375.09567    -503.6388   -1020646.2    8.4994831    759.21809 
   35000    305.43519      374.945   -1337.7774   -1020646.1    10.668198    759.71219 
   35500    300.68482    375.63132   -1746.0966   -1020646.9    8.1945665    758.31129 
   36000    305.53343    376.39551   -325.26102   -1020647.7    9.0140422    758.47907 
   36500    302.33553    377.11906    1037.5927   -1020658.6    7.8044802    760.28127 
   37000     307.1377    376.55415    2720.9707   -1020651.8    8.8020784    763.35023 
   37500    304.93508    378.93674    3466.1194   -1020647.7    8.8934737    764.71218 
   38000    306.20451    377.08035    2324.4504   -1020642.4     8.710577     762.8927 
   38500    305.29796    376.71521    1103.7027   -1020650.3    9.9216766    760.62375 
   39000    303.71369    375.19612   -945.10968   -1020642.4    7.6948846    759.63568 
   39500    301.95824      373.905   -1820.1909   -1020648.5    9.1018809    757.69437 
   40000    307.27012    376.39891   -1823.4486   -1020645.7    8.4664927    757.16301 
Loop time of 10364.8 on 1 procs for 40000 steps with 162748 atoms

Pair  time (%) = 2679.73 (25.8541)
Neigh time (%) = 92.8533 (0.895851)
Comm  time (%) = 145.82 (1.40687)
Outpt time (%) = 0.309908 (0.00299)
Other time (%) = 7446.11 (71.8402)

Nlocal:    162748 ave 162748 max 162748 min
Histogram: 1 0 0 0 0 0 0 0 0 0
Nghost:    42570 ave 42570 max 42570 min
Histogram: 1 0 0 0 0 0 0 0 0 0
Neighs:    0 ave 0 max 0 min
Histogram: 1 0 0 0 0 0 0 0 0 0
FullNghs:  7.89122e+06 ave 7.89122e+06 max 7.89122e+06 min
Histogram: 1 0 0 0 0 0 0 0 0 0

Total # of neighbors = 7891222
Ave neighs/atom = 48.4874
Neighbor list builds = 1333
Dangerous builds = 0

print "Complete re-equilibrium"
Complete re-equilibrium

# start cutting

log ${respath}/log_files/cut_sic_cut.log
log eq_fix2_2.0x100_m_s-1_Groove6T0.5_SiC_EA/log_files/cut_sic_cut.log
